# vtk DataFile Version 4.0
vtk output
ASCII
DATASET POLYDATA
POINTS 21189 float
26.2784 0.98993 -34.8 20.8118 1.08716 -34.7259 22.7889 -1.63781 -36.0002 
17.7943 -0.99014 -35.3534 28.9356 -2.1646 -36.3492 19.7893 -3.79988 -36.0959 
25.368 -4.72225 -37.1152 23.9153 3.64161 -33.2704 19.6984 3.19427 -33.703 
29.8856 4.03951 -32.6155 21.4583 5.61233 -32.3292 26.9932 7.08819 -31.0535 
16.7475 1.57322 -34.5574 32.8813 0.81648 -34.2273 17.0544 4.25838 -33.5417 
22.4962 -6.78758 -36.5565 28.678 -8.27053 -37.7236 30.897 -5.29894 -37.4602 
14.7365 -2.76358 -34.8735 14.3315 -0.1335 -34.9496 17.6127 -5.7036 -35.0286 
35.337 -7.69462 -37.6449 40.9468 -6.48811 -35.5646 36.019 -3.26779 -35.7578 
39.8029 -10.5484 -37.5064 33.9171 -11.2217 -38.264 44.533 -9.34002 -34.4545 
44.9593 -5.10898 -31.5821 41.6315 -2.82856 -33.3046 24.4436 -9.43301 -36.4375 
28.3453 -11.6188 -37.0695 47.5183 -8.31157 -29.6231 44.1203 -0.9099 -29.6172 
47.4468 -4.16841 -25.7645 20.1584 -8.47623 -34.7383 39.2501 0.42766 -32.4039 
11.3185 -0.54109 -34.5471 11.0118 -3.01811 -33.2406 13.6642 -5.05683 -33.3004 
36.2949 3.9528 -31.2153 12.8899 2.33733 -34.7421 33.319 7.13013 -29.9835 
38.9546 6.58418 -28.137 41.8558 3.06022 -28.776 8.92684 1.71496 -35.1294 
8.12512 -1.00871 -32.978 10.0633 4.41797 -35.5272 7.22899 3.77072 -36.0899 
6.19281 1.8824 -34.6616 14.0139 5.63385 -34.069 18.8223 7.68171 -32.0978 
7.93214 6.70638 -36.2135 5.26486 4.73927 -36.1707 23.2579 8.32323 -30.9257 
26.5718 10.7532 -29.6588 31.102 10.2958 -28.8839 11.4263 6.94623 -34.9623 
14.8994 8.78156 -33.2772 11.3455 9.72092 -34.6807 7.89766 10.3354 -35.9353 
5.12982 7.80014 -36.7587 18.7826 11.2565 -31.4152 22.5734 10.9837 -30.3621 
11.6677 13.9432 -33.9667 5.33123 10.9617 -36.3208 7.93387 13.4235 -35.3081 
15.3045 12.2767 -32.6743 11.0632 -4.88033 -31.527 8.93013 -3.71759 -30.7033 
12.7326 -6.69264 -30.6476 9.97045 -5.87746 -28.616 5.50826 -0.27408 -30.8732 
7.01936 -2.60987 -29.7427 3.65984 8.66309 -36.4014 3.63778 5.99544 -35.595 
43.0947 -13.2395 -36.5838 37.6636 -13.823 -38.127 6.01204 14.963 -34.9715 
3.65544 11.0921 -35.5113 46.8699 -12.0957 -32.7486 36.0799 9.73987 -27.5129 
9.77343 17.1059 -33.8942 45.9188 0.90406 -25.3255 4.32464 2.94727 -33.7584 
16.0485 -7.39274 -32.7966 45.1306 -15.7146 -34.6189 47.7818 -14.5769 -30.1613 
48.6463 -11.3045 -28.3498 40.2041 -16.3659 -36.9735 32.4431 -13.6825 -37.7413 
2.84821 7.90328 -34.6099 34.0709 -15.9393 -37.0189 41.9541 -18.982 -34.4127 
35.7637 -18.3942 -35.6022 22.8287 -11.5119 -34.1794 14.6088 -8.63441 -29.8615 
11.5805 -8.30711 -26.5352 17.8963 -9.88756 -31.5876 48.5898 -9.04906 -24.2745 
47.7407 -2.08215 -20.9541 47.9426 -6.75722 -19.8856 18.6525 14.401 -31.2035 
16.2588 16.3091 -31.9647 46.0767 -17.5268 -32.0334 43.5513 5.00719 -25.3294 
40.6778 8.5776 -25.3626 33.8498 12.801 -26.9952 37.8598 11.7144 -25.3678 
21.8727 14.4396 -30.2064 44.6324 -19.6921 -31.013 40.8671 -21.5035 -31.2239 
35.9669 -20.6428 -32.9436 25.691 14.2864 -29.223 46.705 -17.3868 -26.8322 
3.11672 4.39187 -31.9782 27.6781 -14.4226 -35.3242 3.98141 1.43385 -30.3401 
43.5201 -20.9415 -27.2025 48.4177 -13.1977 -24.7101 18.9772 -12.3391 -29.8741 
22.5761 -13.8143 -32.1078 14.8078 -10.7777 -26.8842 3.17144 1.48967 -27.3745 
4.25433 -0.9355 -26.6503 29.7383 13.7601 -28.1801 35.8003 14.2293 -25.4053 
41.557 10.1636 -22.9464 38.7549 13.3847 -23.5355 32.7226 16.1327 -26.4001 
20.3698 18.1271 -30.5533 3.53326 14.11 -34.2725 2.54003 10.5209 -33.5461 
24.429 17.924 -29.3773 28.6387 17.7159 -27.9175 5.02 18.4502 -33.7267 
8.05556 19.8115 -33.4306 13.6465 18.7471 -32.4503 17.3761 20.3328 -31.1488 
20.2017 21.5853 -30.3046 23.1213 21.211 -29.5332 2.80899 16.9528 -32.9221 
2.27929 13.2496 -32.7062 11.4249 21.393 -32.3108 6.577 22.8164 -32.4914 
9.37016 23.4434 -31.9942 14.9203 22.7153 -31.0868 3.52894 21.9526 -32.3316 
18.3363 23.5125 -30.143 12.1353 25.416 -30.5506 21.6485 23.7611 -29.3275 
8.11504 26.7812 -30.7016 5.13842 25.6317 -31.4741 4.77138 29.2506 -30.0674 
2.62668 26.6856 -30.9347 1.76432 10.2093 -30.298 1.33539 15.0906 -30.8184 
15.9772 25.7118 -29.6094 29.706 -17.236 -34.4728 24.2136 -15.9185 -31.6797 
31.2094 -19.3145 -33.2528 26.0045 -18.3006 -30.7437 7.64717 -4.62763 -27.1822 
2.34887 7.21656 -31.4495 2.41841 4.14993 -28.0621 7.60067 31.2148 -28.78 
1.5883 31.017 -29.728 3.61667 33.3664 -28.7776 26.6136 20.9158 -28.3575 
46.513 2.36905 -21.6955 25.4253 23.7013 -28.0925 10.65 28.5198 -29.2798 
19.856 -14.5333 -28.4086 44.3222 6.45382 -22.3625 36.0887 16.0331 -24.301 
31.6566 18.8484 -26.2967 34.0037 18.0838 -25.0303 0.99447 23.4242 -31.0114 
1.67616 19.3357 -31.6751 -0.13198 28.081 -30.1887 5.75907 -2.99302 -26.5216 
3.02001 -0.93102 -22.922 2.15958 1.5503 -23.7889 29.1322 -20.7734 -29.2295 
35.4693 -22.4476 -29.1034 16.3341 -13.1831 -25.4205 -0.1413 19.4659 -29.8986 
0.10108 15.2897 -28.5564 0.7512 11.8129 -27.7625 -1.48089 24.6569 -29.8458 
-2.52745 21.4091 -28.6336 -1.42133 17.1624 -27.5639 19.6494 26.0493 -28.7603 
-2.82988 29.2985 -29.658 -4.02057 25.6926 -29.1332 -5.44615 30.0534 -29.3312 
-3.87906 33.652 -29.3538 -6.37848 34.3552 -29.0541 -7.88101 30.5432 -28.9641 
-6.60965 25.653 -28.5119 -1.2893 32.4587 -29.5348 0.34964 35.1104 -28.8484 
-4.29183 37.8887 -28.427 -7.13589 37.908 -28.0172 -8.65418 34.398 -28.5116 
-2.192 35.8995 -28.994 8.58514 -6.7722 -24.5508 1.8956 6.59321 -28.1869 
1.04697 7.64482 -25.5866 29.9527 20.7654 -26.7592 23.2361 25.6958 -28.0784 
-1.25123 38.4852 -28.101 -2.80995 41.1752 -27.061 -5.47879 41.0485 -26.9451 
39.8188 -22.7576 -27.6348 47.2153 -11.7518 -18.6813 46.9659 -15.5402 -21.0345 
47.1304 -0.86775 -17.6659 47.0494 -5.07985 -16.4908 -0.5976 13.3343 -26.0791 
-4.60304 22.4951 -28.1312 -3.62184 18.8362 -26.8462 13.6324 28.1054 -28.8152 
6.35457 -5.25125 -23.1024 4.33777 -3.43605 -21.9558 28.4174 22.7631 -27.0881 
33.5535 20.1636 -24.427 31.394 22.643 -25.1804 29.0684 24.753 -25.8675 
26.1074 25.7842 -27.0263 -9.65812 31.1934 -28.4062 -9.38132 37.4266 -27.2085 
-10.5006 33.864 -27.514 21.0209 -16.6978 -27.1417 22.8039 -19.0464 -25.8807 
-9.26955 26.8461 -27.9644 11.3428 30.7821 -28.0959 13.2255 -12.1956 -22.1046 
11.2978 -10.2558 -22.4876 9.39863 -8.55516 -22.3988 7.06087 -7.33979 -19.9196 
46.2629 3.42179 -18.7373 44.3526 7.62489 -19.6917 -0.08193 9.82714 -24.2112 
16.7807 28.0594 -28.3056 17.2363 -15.0259 -23.7892 14.6523 -13.7255 -21.6215 
8.74228 -9.4291 -18.9223 5.20176 -5.52928 -19.4431 41.7664 11.5884 -20.7619 
1.55902 4.2535 -24.5926 39.0923 14.9483 -21.8448 36.5149 17.729 -22.9 
-1.62228 11.4287 -22.9364 -0.06013 6.99964 -21.8932 -1.25183 8.31967 -20.5237 
37.0263 19.1495 -21.1817 39.4463 15.979 -19.8456 34.7795 21.902 -22.4815 
-5.94759 20.8603 -26.9703 -7.90377 22.8858 -27.3503 -10.9934 29.9116 -27.3218 
-9.40094 22.2717 -26.2521 -11.0102 25.5966 -26.4124 19.5999 28.4881 -27.7498 
21.9022 27.2821 -27.7389 14.3945 30.2958 -27.7822 9.06673 34.3362 -27.5188 
5.58092 34.9748 -27.8887 12.3491 32.5492 -27.4527 2.28573 37.5888 -27.7391 
17.1342 30.4233 -27.5365 14.692 32.7132 -27.3377 5.70866 37.7617 -27.088 
0.00485 40.9069 -26.8842 2.93814 40.5408 -26.5082 8.95004 37.7411 -26.8025 
11.9778 35.1173 -27.1691 1.05534 42.4816 -25.8038 -1.19979 43.0878 -25.694 
6.00835 40.3935 -26.0981 44.2347 -19.2018 -20.6524 40.6848 -22.3115 -22.9456 
10.5005 -11.2542 -18.3936 46.2252 0.03522 -14.905 45.9357 -4.10297 -13.717 
45.6256 4.24891 -16.026 -2.49598 14.9289 -25.018 -7.92699 40.666 -26.4106 
19.7489 30.8542 -27.063 17.2405 32.9957 -27.0704 3.39142 42.529 -25.2376 
46.1353 -9.11282 -14.9176 0.39577 4.60819 -21.1629 24.7938 27.5928 -26.7921 
-11.3215 36.7227 -25.9761 -12.1086 32.9809 -26.0703 0.93304 1.90352 -20.1883 
-5.05015 16.463 -24.4343 -3.76031 43.4267 -25.5116 12.4657 -12.9758 -18.2637 
4.86718 -6.52212 -15.8009 6.74564 -8.3586 -16.3508 41.4673 12.99 -19.1213 
43.8213 8.70912 -16.858 39.8283 16.8094 -17.5956 37.7874 20.3756 -19.1495 
-6.32908 43.4246 -25.1402 0.92092 43.9574 -24.5334 1.67082 -0.5266 -19.3939 
2.63637 -2.66125 -18.7025 32.8469 24.2532 -23.3803 22.2251 29.1322 -26.9926 
14.6586 35.4005 -26.9855 11.9403 37.8796 -26.6136 17.2129 35.5028 -26.2831 
14.6848 37.8847 -26.0912 18.2333 -16.988 -21.4046 24.5874 -21.1627 -23.4533 
20.6833 -19.3457 -21.326 42.0451 12.2435 -15.9762 45.0289 4.59583 -13.5899 
43.9672 6.8967 -12.7353 -7.49244 19.2775 -25.4548 24.8183 29.7732 -25.8888 
22.3288 31.3204 -26.0775 -1.64343 44.8899 -24.048 14.8386 -14.6761 -19.0949 
3.60908 -4.55608 -17.3845 -3.59478 12.8103 -22.0856 -2.90135 9.84772 -19.5384 
-7.08816 15.737 -22.5328 -5.41564 13.6429 -21.4865 -9.05762 18.391 -23.6779 
-10.8087 21.4234 -24.5173 -12.335 24.6439 -24.5869 -12.4125 28.8827 -25.683 
28.0601 27.0162 -25.564 27.03 28.6887 -25.4399 -10.1178 40.0663 -25.4896 
19.7717 33.2507 -26.2053 -8.72948 42.9912 -24.5985 9.15 40.2941 -25.8188 
6.39211 42.4468 -24.7295 3.68152 44.1777 -23.6654 -1.13793 5.34412 -17.6583 
-0.41436 2.64031 -16.6267 -10.4943 17.7327 -21.5473 -12.0742 20.7187 -22.5316 
-4.36307 45.5327 -23.6451 1.00341 45.5332 -22.8655 7.88311 -9.82227 -14.7328 
1.29069 -2.06952 -15.5065 2.23633 -3.61561 -15.5048 -4.77982 11.2075 -18.9686 
12.1454 40.1993 -25.4009 30.1447 -22.7029 -24.628 0.21334 0.13649 -15.2622 
24.9551 31.6257 -24.5185 27.3424 30.2038 -24.3417 19.7817 35.429 -24.7092 
17.275 37.696 -24.8145 2.82537 -4.88736 -13.7575 31.2783 26.3964 -23.7231 
9.53559 42.3378 -24.2724 35.8927 -23.3228 -24.2181 -6.72491 12.7667 -19.0883 
22.4019 33.3572 -24.5567 14.9387 39.9935 -24.4616 21.7026 -20.5446 -18.0816 
26.2209 -22.4882 -19.0063 5.58883 -7.96021 -13.1691 -2.57944 7.25939 -16.7564 
-2.50038 5.44612 -14.0157 -1.80698 3.57333 -12.5894 34.3536 25.5131 -21.4163 
35.8933 23.2726 -20.6413 22.6544 35.3188 -22.2316 19.8462 37.4109 -22.834 
12.5756 42.1784 -23.5907 18.292 -18.0541 -16.9783 45.3649 0.9467 -12.3422 
44.8688 -3.17181 -11 -8.67626 14.9742 -20.1274 41.5558 13.8461 -14.1683 
40.2563 17.6035 -14.9892 29.8067 28.6142 -23.6518 33.0138 27.5076 -21.4701 
[...]
POINT_DATA 21189
FIELD FieldData 5
LAT 1 21189 float
11.3157 8.93207 9.23752 8.50751 9.29108 8.56294 10.0315 10.643 10.2288 
13.3215 12.9912 9.53901 10.5909 11.1426 11.3284 9.40372 10.9486 9.72614 
9.76155 10.0854 8.38429 12.2994 13.6552 11.7435 12.788 11.4103 13.5615 
12.4267 13.754 10.9151 10.7869 11.2101 14.4245 13.3867 9.39577 13.479 
8.3865 10.6441 8.27133 13.3214 8.63181 14.1732 12.2389 12.2361 7.42996 
7.11713 10.389 9.20042 9.06736 9.56443 10.7746 8.74023 8.1047 12.1284 
13.483 13.1129 10.2011 9.81753 11.257 9.513 9.32441 10.7746 11.2972 
9.90567 9.17276 8.90611 10.9106 9.52005 9.47662 9.32308 7.53092 9.67212 
8.72488 8.62121 8.02464 12.4335 14.2124 10.1387 9.68935 12.8651 12.942 
9.68355 12.5455 8.15482 9.36576 11.7236 14.5152 13.7416 13.1259 12.308 
8.62112 13.9385 12.2079 13.2468 10.3932 10.0018 6.92841 8.55179 13.9225 
14.8076 16.8562 12.5265 9.37209 11.7235 15.559 14.2007 12.0389 11.6386 
10.7673 12.4742 10.5539 10.3325 13.2652 16.1935 7.65066 9.43071 9.2561 
11.4064 15.2219 9.5968 10.4342 8.07595 9.21461 6.74118 14.0563 13.4645 
15.5929 13.6048 12.2373 10.8181 10.8455 10.9284 12.5295 16.8604 12.2401 
9.87005 9.90842 11.26 13.3546 12.5473 12.9676 11.7473 11.2513 13.3482 
12.7367 11.0878 14.6603 12.9673 11.8049 13.2288 10.8402 13.4311 11.6693 
12.1005 7.83471 10.8631 11.8048 9.18686 8.65004 9.06191 9.59667 8.72804 
9.05315 7.45569 10.7265 12.5553 12.8027 13.17 14.8076 11.1494 13.2898 
8.85785 18.9486 14.9853 14.8096 13.5341 14.0774 11.43 13.3004 6.14477 
9.02567 8.4313 10.1817 10.8729 9.67743 9.81168 9.10417 8.67308 11.2775 
8.28153 8.55715 11.8189 15.3427 11.5092 15.1087 11.5648 10.8697 13.842 
11.8689 11.9716 11.4871 11.4474 10.9204 11.0486 11.1646 9.67332 7.0482 
7.79163 16.222 12.7935 10.65 12.4313 11.7171 9.11687 13.1285 13.7214 
16.473 18.3018 6.81257 8.10813 7.51185 12.9149 7.58958 8.99963 14.1433 
14.3078 16.0383 12.8792 13.3354 12.378 12.1317 9.96581 9.17404 9.28961 
12.3491 12.725 8.00094 8.73771 10.79 8.17254 17.111 20.4936 8.97623 
12.9203 10.448 8.48527 8.63772 5.61706 17.7143 6.79139 15.7824 14.1887 
10.0691 9.30213 9.9846 13.045 15.7756 15.0695 9.97209 9.3588 11.3228 
8.12651 10.932 12.8048 11.8189 15.3079 13.5209 13.7454 14.4924 12.2253 
13.9977 16.6985 15.7139 13.6371 14.9925 16.8254 16.0646 15.8167 15.0415 
17.2867 14.3958 12.8526 8.07602 19.2232 19.9811 19.6851 6.99524 12.5348 
11.3058 14.3612 17.3189 14.9557 6.78497 11.772 10.0964 10.0895 6.71694 
9.58692 12.4522 7.86199 8.56563 6.81792 18.9794 22.4246 17.5478 15.5375 
12.4522 17.3579 6.04333 8.48608 14.5563 11.849 17.8259 18.7917 16.2835 
19.6762 9.0918 11.2318 10.8114 21.7488 22.2171 24.8913 9.96397 12.1477 
11.0897 15.2194 8.20723 8.39583 10.0979 9.00083 12.4672 11.6248 11.9753 
9.27142 12.7092 8.92319 11.9487 11.5681 12.8014 13.2502 14.9509 19.1321 
19.277 19.5837 5.85212 4.91849 13.813 11.7293 14.0362 18.1889 6.03753 
7.70561 9.39458 8.13965 20.8314 9.61835 6.28106 11.9632 11.815 14.8145 
17.3367 9.47954 11.8784 21.6695 9.88608 9.73798 11.4707 20.0544 12.1468 
7.71637 6.65231 6.89649 6.62297 6.89537 12.3965 15.2234 12.2971 14.1828 
22.9829 8.69474 20.7141 17.2888 12.6134 22.1603 20.1425 11.7729 11.888 
13.7291 11.4452 12.7646 15.4127 17.2095 21.5062 11.4416 10.8631 13.7336 
15.4015 21.236 26.3115 13.6514 13.2853 15.7441 20.2901 6.68867 17.1969 
6.76875 15.7289 17.8699 12.6438 11.1672 17.1257 8.99109 7.86189 11.2367 
5.35158 25.0192 14.7078 9.55426 17.0072 6.92763 7.42311 14.691 14.4659 
13.5354 15.6974 13.0156 14.0535 11.3652 10.1565 8.17882 20.1662 8.10714 
11.1016 15.0585 15.9477 10.7845 11.5449 14.345 18.5571 19.6115 20.1208 
19.0767 22.4221 23.909 6.2145 7.14647 5.67828 6.59874 15.1909 13.281 
6.1484 12.0517 15.7904 15.0439 12.5218 24.0481 7.32632 22.108 23.6705 
18.9129 17.0204 10.6801 17.9735 7.22638 10.1205 23.3349 15.8425 11.8279 
7.62086 9.30948 20.9442 15.8877 20.5014 23.6249 26.1657 9.85793 8.05667 
11.233 9.1583 17.7133 25.9566 9.4375 7.4221 11.4036 9.14334 12.351 
9.40687 14.0662 17.0073 13.4803 12.6652 10.7814 14.5077 14.66 20.0746 
20.1379 17.223 21.7773 13.3127 11.7106 6.11832 9.8154 7.55963 9.58353 
14.906 18.0274 20.1953 23.001 12.4668 11.4009 7.94426 4.76497 9.72882 
14.6195 15.217 22.9198 11.5423 16.3297 20.9295 14.1068 22.8053 24.7244 
24.0774 25.6027 9.03795 11.759 18.9526 11.3908 5.46557 5.02364 11.2536 
12.184 13.3082 10.8939 7.15473 7.09364 5.33086 9.28422 5.24584 17.2704 
13.9412 12.7314 13.1644 15.3529 17.2071 9.74795 7.19481 9.83274 11.0889 
10.3718 8.586 10.2018 10.5573 10.9179 21.8229 25.0702 20.9118 16.6589 
18.8682 21.5121 20.0501 14.6781 14.5877 19.8823 25.2453 27.6406 24.2135 
5.02364 7.32507 12.3993 14.4347 19.8124 23.8326 17.544 17.3617 5.67818 
11.2505 16.1558 16.7713 23.8628 22.2125 8.99379 9.64959 6.84984 17.459 
19.7528 6.0993 14.5315 16.4286 8.65211 11.2501 9.82542 8.23667 7.77152 
9.45769 15.7982 23.5107 17.0268 14.4493 18.0249 19.0431 16.5233 26.2952 
28.5511 8.05242 7.82554 6.601 11.3971 13.1381 20.9347 24.4864 26.8544 
17.8502 24.0128 20.1469 20.6135 22.3661 16.2528 26.3552 28.231 17.583 
22.7889 19.2419 27.0138 24.9454 27.3069 6.61161 8.49126 5.82844 13.1483 
12.3965 17.1224 10.3296 11.7264 14.8091 17.0425 16.8541 5.62566 6.74858 
10.9126 9.46993 20.1561 15.0014 17.1988 25.4302 7.73031 11.0463 15.0471 
22.687 18.363 24.6871 22.6934 19.5299 21.0242 20.0393 14.555 9.66824 
6.49255 8.27232 22.4921 19.0462 17.5682 14.4027 6.00704 28.1816 29.3589 
10.3176 11.1167 10.8193 15.1146 14.6788 25.3341 19.8155 18.6438 15.2344 
7.86962 7.43742 10.3087 20.563 22.4053 7.67191 8.41611 7.55168 6.78519 
14.8373 13.3098 15.2239 16.5698 18.7734 18.5961 20.1764 21.0814 17.6606 
15.5595 24.6978 27.3333 9.42147 12.9882 9.29261 10.2781 27.1862 20.649 
18.4066 22.8086 6.70465 6.99464 6.76211 5.69944 5.68492 9.66607 8.13088 
9.57754 11.3919 16.8625 19.1617 23.6621 17.9009 28.3246 6.90085 7.00738 
21.4483 5.30938 12.8939 10.4728 20.3988 22.633 25.1326 27.4656 12.4629 
14.7321 16.3595 24.0227 8.49127 6.50368 14.3261 17.1072 19.3904 25.4663 
19.4914 25.0507 24.9881 13.1641 8.3416 17.388 19.1844 24.0143 27.8825 
20.9857 11.4213 9.74182 5.10111 4.17969 16.4187 23.6915 26.9799 18.4676 
23.0722 7.4697 6.43839 6.4637 13.9649 23.321 27.6835 26.0916 9.35935 
21.615 28.0148 21.4623 22.0643 29.9835 12.4751 8.39373 9.8357 27.7447 
26.6253 19.4621 26.8363 26.9328 30.2114 7.49593 11.8516 13.092 23.7935 
26.3237 32.4438 26.701 29.1977 6.54053 11.5243 16.7457 16.0227 5.03369 
7.28869 5.96052 9.10437 8.99887 10.3931 10.5632 15.1325 7.76972 14.8692 
18.9274 18.4794 24.4849 9.25718 9.85299 9.32025 9.69042 21.7684 25.6415 
23.8444 21.1888 29.6945 30.0137 30.278 9.68442 24.4799 26.7719 18.9547 
4.86709 9.17481 12.2868 18.1909 6.77912 6.17964 8.59131 7.46594 5.82391 
6.288 7.86845 11.1217 9.32428 13.4629 17.7658 27.469 29.6307 23.9273 
21.6814 25.0311 31.9407 13.5385 12.369 9.5389 7.16284 6.20365 17.8393 
27.3732 22.0959 27.1023 26.7385 18.1953 16.7299 14.9489 32.206 7.90717 
8.03885 6.174 5.02727 5.09144 20.9733 25.0074 20.3634 22.136 8.90034 
19.4933 20.9013 23.7059 8.63612 9.07334 8.36401 8.12305 7.97444 11.4548 
13.802 12.6244 16.6477 17.3792 20.6689 34.681 32.6249 10.1309 9.07338 
12.07 25.2004 24.1604 25.4584 6.09692 6.93801 19.1528 24.3139 25.1018 
17.7693 21.7064 10.5063 22.1842 25.0705 23.1865 9.08786 27.4721 27.706 
16.9327 15.4727 17.9729 17.5878 20.6943 4.24542 4.95147 9.41344 8.73448 
21.9747 22.6335 7.93891 9.1872 15.7228 14.5349 9.48083 11.1809 6.46956 
14.497 10.5438 10.8134 20.448 28.9309 27.6077 7.20734 8.96826 15.6839 
27.9074 19.2492 8.51521 24.5978 28.8788 6.94794 7.78878 8.93587 16.2636 
14.3422 8.24675 11.2709 10.1578 18.2031 25.0206 24.9488 6.5299 7.19445 
7.58275 6.5214 13.7915 22.6824 22.7981 24.6827 21.0544 36.2933 8.438 
9.99051 8.51699 8.69839 13.604 11.7531 27.8309 19.0848 16.4324 34.859 
8.96862 8.98236 13.5491 23.4264 20.4092 25.9035 21.1124 6.15215 12.5193 
13.7769 12.4711 19.4867 10.6933 14.4659 11.4787 25.3459 26.3245 8.82479 
8.10159 4.95147 8.31648 24.9204 23.3317 31.2211 29.7072 6.84597 9.56487 
8.6948 8.94573 8.66049 17.2692 14.6294 7.69321 13.6678 13.766 32.4379 
7.08282 9.43066 20.4499 18.8489 16.5477 25.4958 34.6702 36.6987 7.24154 
7.69174 14.5605 12.2959 10.3329 8.93392 22.1452 10.1528 26.0666 11.8763 
11.1092 11.5344 18.034 14.6558 18.3756 23.3528 22.3451 24.168 7.07439 
7.41662 10.24 11.3455 10.5055 24.8036 24.6058 7.01092 9.62247 12.5287 
10.7783 12.7114 27.3329 27.7475 8.08874 8.6778 8.41196 13.7393 12.5749 
12.8147 10.8886 9.83967 25.5241 22.0756 9.2766 9.92106 12.4182 10.8309 
12.4351 9.87678 21.7041 22.8195 23.8791 33.568 8.52874 11.7272 10.0363 
8.39635 9.59061 11.3756 10.8887 11.6606 19.5676 21.1486 7.20994 12.0136 
10.0623 15.6044 9.33632 11.6353 8.0058 8.70555 9.82961 9.38576 9.35425 
12.2987 19.3826 19.4421 6.96612 9.58291 19.3063 6.09401 10.2467 7.91068 
9.79342 10.3455 10.6237 17.8453 19.0317 30.7442 7.09279 4.7426 7.42742 
9.35097 7.93633 8.65515 16.1277 9.84972 33.3945 36.1878 7.32906 6.425 
11.6433 12.9951 22.1294 15.401 8.42058 20.4195 17.5433 36.2421 13.2108 
24.0928 28.4468 6.97863 9.4746 7.82337 13.3647 17.178 25.4968 32.6384 
29.9874 11.9289 9.36554 12.3862 7.43591 8.54823 10.0987 10.8633 16.285 
14.3315 15.6264 20.6937 8.82225 9.7206 9.82931 19.9993 11.2556 10.3083 
15.6146 7.19138 7.92634 13.4423 8.89826 13.8541 12.7324 7.25588 9.99918 
11.8765 11.6411 14.3869 12.0963 34.166 7.71233 10.5748 17.4929 9.39527 
11.1549 13.5504 7.98806 7.43151 6.3192 8.59156 12.002 8.43036 11.6438 
8.68876 8.59781 12.0181 27.4605 31.7571 11.9439 14.2567 13.8671 10.1284 
12.0311 9.9151 12.4351 10.4126 17.0265 10.6695 13.5809 23.5118 6.8886 
10.244 11.1833 11.9036 7.6973 14.8234 16.7468 13.5882 7.47618 7.8817 
11.9889 9.50622 20.3196 10.1296 9.34061 8.39355 13.429 15.57 13.5773 
10.3691 9.87562 6.85786 9.53882 29.2968 31.362 34.1449 8.67252 7.75026 
10.6571 8.39358 10.3029 9.1911 8.95107 17.8221 11.24 11.0928 11.8436 
10.2684 14.2707 24.6495 15.8627 17.3755 9.93446 11.589 9.80939 8.50401 
12.0329 9.8958 12.8998 10.1605 11.5943 9.21829 15.3681 27.2154 29.169 
7.8885 8.6872 11.9301 13.3177 21.7735 9.55662 7.50013 7.97189 11.0964 
19.8522 6.56186 8.16135 11.4701 12.0477 9.02017 7.62905 10.6142 16.6568 
28.2603 10.3149 8.99522 8.28961 9.37339 10.0868 10.3056 10.1183 12.1152 
9.97697 9.83382 11.3545 18.138 14.8056 26.6913 9.94099 11.5607 19.817 
25.4437 14.2577 10.9335 9.00629 12.0198 11.8312 24.5405 11.1057 8.45944 
9.64313 22.9488 9.3417 11.069 9.59029 13.3663 10.0798 9.46617 11.8754 
10.811 23.8479 25.6523 10.8202 10.9548 10.0602 13.6337 9.34178 11.7471 
12.2554 13.1016 15.3814 23.0613 21.264 19.6121 22.6635 22.0957 24.7404 
8.77596 12.6291 11.9897 15.5106 18.3434 8.88225 13.9897 9.97939 18.4744 
9.78218 11.9059 10.8542 12.4982 21.4716 11.4795 14.0676 14.3183 14.5208 
13.7051 13.2252 14.946 15.6366 15.9753 15.4443 15.5635 16.3916 19.0486 
18.8782 16.8163 20.5333 22.0951 18.4981 17.7363 10.3817 8.58175 9.12427 
9.00645 8.72362 11.7813 11.0576 9.23751 9.28434 9.75093 9.94316 9.53376 
10.7192 10.1282 10.8362 8.9321 10.6429 12.329 12.1817 11.667 10.8045 
11.7807 11.6658 8.72362 9.73418 9.55892 10.7103 10.7103 12.805 10.7281 
11.1587 10.9508 10.7741 9.28441 9.94325 11.6876 11.5851 9.89695 9.13906 
8.5076 7.75012 9.04853 10.2025 10.4273 8.74886 9.16841 9.00706 11.4593 
14.1108 14.511 14.6783 13.0026 9.77516 11.6342 13.2041 9.97905 11.0961 
12.7521 12.7801 13.8952 14.9618 15.2454 12.7842 13.837 12.1537 9.70583 
9.78365 10.7664 11.4102 10.7664 12.0226 12.4266 14.0959 13.7541 12.7841 
13.9147 13.477 12.6753 9.4036 9.16848 8.56111 11.1426 13.3974 11.4916 
13.8597 10.1989 8.86783 9.66049 9.71451 8.27128 9.30797 9.28116 12.103 
10.0409 11.1035 8.96724 7.43375 10.4521 12.6993 12.3031 14.2316 13.6788 
13.6959 14.1724 14.5406 8.48383 8.3865 8.91148 8.52499 8.8806 9.69611 
8.9095 10.0667 8.84696 8.81937 9.68994 8.63189 7.13559 12.1549 10.0412 
8.00679 9.27122 9.27113 11.5946 9.61553 9.80514 8.1047 8.77592 8.99758 
11.5071 12.1105 11.511 13.071 11.128 13.4525 12.8946 8.94747 10.4111 
9.94227 8.96385 10.4817 10.9533 8.34151 10.744 8.99648 10.6151 9.84287 
8.94223 8.72931 10.3228 8.43943 10.4309 8.95476 10.0206 9.02874 11.345 
9.97926 9.13405 9.90558 10.1439 10.308 8.9061 9.6242 10.2391 8.83018 
9.82084 10.9773 9.72698 10.7713 9.57248 9.80495 9.09169 9.68445 8.00857 
7.56086 8.64703 8.04148 8.3387 8.85445 6.83723 8.65106 8.55602 8.88638 
9.92495 8.21751 8.14506 7.57898 11.3742 10.9345 12.1538 12.408 12.9147 
12.7521 13.2184 8.78963 10.12 8.96103 9.27229 7.85684 11.4071 13.369 
13.5215 11.9008 12.2389 13.1957 11.1866 9.96678 9.96677 9.68357 13.4101 
12.5575 13.3868 13.4101 9.13954 9.26365 8.00453 7.67795 9.85711 9.30438 
9.47059 11.4069 12.0692 13.8946 12.0194 14.2379 12.0203 15.3452 14.3587 
11.706 10.713 11.7745 13.045 10.8496 10.2368 7.56694 8.02464 8.86041 
15.6068 14.3049 11.9737 10.8531 14.9483 13.1456 13.0715 10.6019 9.40427 
11.9947 9.90931 10.4396 7.65428 7.91844 7.53091 13.0037 9.39577 9.54223 
10.2176 13.9972 12.313 14.5972 12.3864 16.1056 17.2075 15.2496 12.7304 
12.3518 11.1532 10.9492 9.0512 10.0755 10.617 12.7304 12.3131 13.4058 
14.6604 14.7274 12.984 12.484 11.0307 12.1703 12.4756 11.9701 12.6186 
11.7441 12.1935 12.3263 10.6169 12.208 10.5539 10.5931 11.4016 12.0075 
9.29752 12.999 14.6029 11.447 14.3214 14.6701 15.3457 8.85094 7.65073 
7.92656 10.0683 9.61101 11.718 8.40718 7.37902 9.4372 12.9402 11.3056 
13.8 16.3201 14.4006 16.9231 11.0485 11.1325 10.142 11.6354 10.1644 
10.53 9.57619 9.37399 8.16477 8.67122 13.5179 9.64049 8.21821 8.79383 
7.94972 8.46099 15.2902 12.3827 12.2376 14.514 11.97 12.6749 13.358 
14.8607 12.4534 12.877 14.5894 12.3875 14.0212 12.8169 15.3331 10.8181 
10.743 11.6186 9.21339 9.48907 10.2815 10.3788 9.71983 10.743 10.6511 
12.716 15.9945 14.8127 14.5551 10.3235 11.4057 10.182 9.75469 11.54 
8.84611 9.79483 8.9832 12.2263 10.1338 12.0326 12.7952 10.6511 12.3867 
11.7912 12.4056 13.0205 11.7006 11.2862 12.7302 9.79482 9.94502 11.175 
10.1338 11.6092 12.6501 11.405 11.8785 13.0556 9.21491 10.3499 10.9438 
14.1478 14.2845 13.1449 12.1662 13.7682 11.9609 12.9019 12.7938 11.5736 
13.8628 12.9698 13.3183 11.6695 11.9608 13.246 14.7271 10.8402 12.5317 
11.7618 12.3234 10.3734 14.3298 11.7588 9.79095 9.51063 11.8888 11.3814 
9.93245 14.6577 11.7797 11.725 9.82153 10.3396 11.33 10.4629 10.2286 
10.1642 10.463 10.7042 10.4576 10.2679 9.59681 9.96471 8.88343 9.03221 
8.67086 7.92653 6.79369 7.7901 6.76822 11.5716 10.6932 11.4384 10.5901 
11.572 12.342 11.5719 13.5458 12.4571 15.0685 9.39703 7.91844 13.5345 
15.5538 12.4693 9.34768 11.1494 11.2418 11.7792 12.2862 12.976 11.4312 
10.3918 8.20623 9.87329 16.5592 17.2538 17.4134 13.688 14.0514 13.5682 
15.8815 12.181 13.6406 14.165 14.2627 13.9244 13.042 11.5085 12.6263 
12.307 14.131 12.1802 9.40416 7.88474 8.71342 7.43641 8.4383 7.06196 
7.35155 5.92704 9.19599 8.67935 9.92229 10.6717 11.4405 9.06032 10.2992 
10.873 9.31986 8.07603 9.81789 17.0574 13.9265 10.5294 8.64986 9.6881 
8.53475 10.1367 7.67286 9.35939 11.9445 12.778 11.2877 13.1255 9.47713 
9.6583 8.53479 8.97062 7.71678 11.7728 12.7605 10.1383 14.5678 13.0261 
11.1358 13.4259 9.41462 13.5274 15.5047 13.5902 13.7004 11.4333 12.9426 
14.9331 12.9189 13.8166 14.392 11.5278 13.7305 13.7924 11.9474 12.086 
10.49 10.3756 12.1131 10.8697 11.6221 10.848 11.4474 11.8569 12.1752 
12.0179 10.1483 11.3726 11.5769 9.833 7.65342 9.15471 7.87679 6.74117 
8.26164 7.47277 7.19652 7.19652 6.32645 16.4274 14.5986 16.1127 12.6204 
11.4894 11.4871 11.3725 11.1647 11.5538 12.2892 11.5538 12.289 11.7171 
10.2992 9.33375 11.154 13.192 13.192 13.8779 16.0502 12.782 15.072 
14.2483 17.1648 17.7824 17.4015 7.4727 8.42876 8.1324 7.75661 9.80862 
8.79308 7.70206 8.06222 8.47991 11.5433 13.3774 11.5883 11.2348 8.21511 
9.07008 7.39514 7.95051 7.67029 15.0822 13.3738 16.0496 14.7465 16.502 
15.9944 15.2882 12.5678 13.3448 14.0909 12.2182 12.6386 13.2444 11.2093 
13.0007 11.6855 11.7696 9.96581 10.953 11.1643 8.2795 8.51584 9.16919 
8.37391 10.1816 8.55677 14.386 12.4991 13.7504 12.6957 14.1846 10.8107 
9.67588 8.42516 9.22908 8.20349 8.03273 7.68058 9.71849 8.56362 7.90957 
9.36489 6.3777 17.9705 15.8396 19.8881 18.0304 18.9595 8.53592 7.2161 
8.67303 13.9006 11.9044 11.5398 12.9898 11.4871 10.6392 8.50729 9.96475 
7.6391 10.2589 10.0132 10.4598 9.46202 9.60308 6.37771 6.93629 7.30838 
9.634 15.8233 16.508 15.6418 18.8101 6.97501 6.61178 7.3261 14.6758 
15.0369 16.4757 14.7824 13.3504 14.6157 9.95518 8.72035 10.4056 9.74632 
10.9781 11.7058 9.23526 12.2445 13.045 13.1778 13.5423 14.0814 15.51 
14.5649 13.1779 16.1788 9.98859 9.31523 10.1856 8.62278 14.4311 10.865 
10.9515 12.7558 11.9628 9.96523 8.51764 11.4626 9.08337 11.9462 11.7366 
12.86 10.437 12.2711 11.7571 14.0978 14.2781 14.2592 11.6849 12.6466 
11.7301 13.3091 12.7471 13.5708 14.9765 13.713 13.3602 11.5082 13.9295 
14.0587 15.3746 13.5469 11.567 16.1472 15.3131 15.5835 13.9696 14.8644 
12.969 12.1436 13.4863 14.2707 15.013 14.1983 15.0847 15.939 14.949 
15.0867 16.3317 13.5684 14.7269 15.3123 14.7837 13.8188 15.8069 16.3902 
16.0548 17.3517 13.055 15.2189 10.5246 10.6305 13.9319 7.78544 8.3387 
7.68056 7.86203 14.5132 17.8198 17.3446 18.9584 20.2159 19.0873 18.3698 
20.057 18.7973 7.71492 7.93187 7.75661 7.98655 8.06787 11.4656 12.9845 
11.4222 12.6517 12.54 14.0446 15.519 12.7705 16.2624 16.136 16.3671 
17.0983 15.1893 16.444 12.5948 9.14561 7.83814 8.0558 8.55142 12.6128 
12.8958 12.1835 10.4933 10.933 10.9298 10.2126 10.0894 10.8273 7.14214 
7.82921 5.32263 8.06782 8.51331 9.22494 13.0628 11.8684 13.7469 7.63915 
8.00097 8.28725 8.83111 7.51201 8.6802 8.06074 7.37846 18.3627 17.2524 
21.3774 19.9714 20.917 15.2956 16.5225 14.2913 16.5419 14.4242 12.351 
13.472 11.1545 16.7345 16.1739 17.2344 14.1294 7.94281 7.29651 9.16407 
9.94993 7.2647 17.4918 15.3839 13.7766 16.1431 12.6835 12.2966 11.8489 
17.1361 17.1718 16.0827 18.2394 17.4282 16.9248 15.1747 18.6573 19.4292 
17.9715 8.28623 7.49704 10.3821 9.66438 8.29505 10.1357 9.52024 5.38644 
21.3453 22.5588 20.4526 22.344 20.9511 23.6811 24.8118 23.5542 18.7622 
19.4257 7.9157 9.33638 8.89353 11.7426 12.26 10.9676 12.2695 11.9139 
12.3479 14.9843 13.8047 16.2255 10.1597 10.7233 9.08735 10.4476 7.00645 
8.69762 8.72413 9.6482 9.79595 8.35069 10.8302 10.0874 10.0192 9.63882 
10.5655 11.9 11.027 10.6485 10.8569 12.0886 11.0109 9.70266 13.1643 
8.07644 9.75063 10.4113 11.5329 10.927 10.7465 10.123 11.1126 13.2652 
12.5521 11.8779 11.5682 11.9622 12.1679 11.4223 12.4731 11.5255 11.9775 
13.5115 12.5659 13.9869 13.7016 13.9257 17.5171 17.8865 18.7233 18.7534 
18.21 18.2495 18.4671 18.3678 19.2667 19.5719 5.91115 7.18198 5.91114 
5.13013 5.85942 11.4986 12.7851 10.5004 12.1559 12.622 10.2088 12.7781 
12.5934 14.2584 17.7037 19.1545 16.7041 7.12012 7.00911 6.03752 5.71472 
8.28197 7.06059 9.18814 9.651 8.53758 7.91836 9.96128 9.86862 8.23746 
14.7026 19.7403 19.9351 20.6984 9.66436 9.97167 9.88186 5.82702 5.10984 
6.66151 11.9008 11.1938 11.7005 11.0534 11.9009 15.9136 14.5159 17.39 
18.7757 16.0236 9.9078 8.49749 10.4313 12.4535 13.2174 11.6556 20.3885 
21.1546 20.5106 8.70513 9.88671 9.78201 10.5904 12 8.8302 13.0237 
11.5554 13.1426 20.0463 21.481 18.6391 10.8632 11.6578 8.77203 7.68534 
10.2187 6.30655 7.64851 6.81792 6.62296 8.53611 5.52469 5.52464 4.72394 
4.70968 6.66914 13.6298 12.2909 15.0433 16.3087 13.81 11.9612 13.2348 
12.297 14.3946 15.747 12.4971 22.0788 21.4871 22.4537 9.51495 8.16537 
10.1441 20.5567 20.2237 19.8293 18.6059 18.878 8.35416 13.3744 14.4405 
11.1478 19.822 21.8391 18.8302 20.9781 17.9209 11.3546 11.6408 12.2908 
12.8813 12.3965 11.2128 12.1614 12.8993 12.7731 12.8043 11.773 12.5871 
11.9633 12.0917 13.4799 12.936 13.8436 14.8777 14.2933 17.1261 18.6017 
15.6743 20.3752 20.4633 21.5264 21.4897 15.6995 11.07 12.5997 10.9509 
10.292 11.3602 14.9221 13.8619 15.7109 14.536 15.9676 20.659 19.711 
21.616 6.37839 24.3271 24.4736 25.9786 12.478 12.1732 12.5086 12.729 
14.3306 13.5786 15.429 14.4696 16.6936 20.0552 18.7381 21.6026 6.68865 
6.80424 7.47948 17.638 18.8208 16.0719 7.26376 6.2709 7.77129 14.3773 